# vtk DataFile Version 3.0
grids
ASCII
DATASET POLYDATA
POINTS 122 float
0.058824 0.058824 0.0
0.117647 0.058824 0.0
0.176471 0.058824 0.0
0.235294 0.058824 0.0
0.294118 0.058824 0.0
0.352941 0.058824 0.0
0.058824 0.117647 0.0
0.117647 0.117647 0.0
0.176471 0.117647 0.0
0.235294 0.117647 0.0
0.294118 0.117647 0.0
0.352941 0.117647 0.0
0.058824 0.176471 0.0
0.117647 0.176471 0.0
0.176471 0.176471 0.0
0.235294 0.176471 0.0
0.294118 0.176471 0.0
0.352941 0.176471 0.0
0.058824 0.235294 0.0
0.117647 0.235294 0.0
0.176471 0.235294 0.0
0.235294 0.235294 0.0
0.294118 0.235294 0.0
0.352941 0.235294 0.0
0.058824 0.294118 0.0
0.117647 0.294118 0.0
0.176471 0.294118 0.0
0.235294 0.294118 0.0
0.294118 0.294118 0.0
0.352941 0.294118 0.0
0.058824 0.352941 0.0
0.117647 0.352941 0.0
0.176471 0.352941 0.0
0.235294 0.352941 0.0
0.294118 0.352941 0.0
0.352941 0.352941 0.0
0.411765 0.058824 0.0
0.470588 0.058824 0.0
0.529412 0.058824 0.0
0.588235 0.058824 0.0
0.647059 0.058824 0.0
0.705882 0.058824 0.0
0.411765 0.117647 0.0
0.470588 0.117647 0.0
0.529412 0.117647 0.0
0.588235 0.117647 0.0
0.647059 0.117647 0.0
0.705882 0.117647 0.0
0.411765 0.176471 0.0
0.470588 0.176471 0.0
0.529412 0.176471 0.0
0.588235 0.176471 0.0
0.647059 0.176471 0.0
0.705882 0.176471 0.0
0.411765 0.235294 0.0
0.470588 0.235294 0.0
0.529412 0.235294 0.0
0.588235 0.235294 0.0
0.647059 0.235294 0.0
0.705882 0.235294 0.0
0.411765 0.294118 0.0
0.470588 0.294118 0.0
0.529412 0.294118 0.0
0.588235 0.294118 0.0
0.647059 0.294118 0.0
0.705882 0.294118 0.0
0.411765 0.352941 0.0
0.470588 0.352941 0.0
0.529412 0.352941 0.0
0.588235 0.352941 0.0
0.647059 0.352941 0.0
0.705882 0.352941 0.0
0.058824 0.411765 0.0
0.117647 0.411765 0.0
0.176471 0.411765 0.0
0.235294 0.411765 0.0
0.294118 0.411765 0.0
0.352941 0.411765 0.0
0.058824 0.470588 0.0
0.117647 0.470588 0.0
0.176471 0.470588 0.0
0.235294 0.470588 0.0
0.294118 0.470588 0.0
0.352941 0.470588 0.0
0.411765 0.411765 0.0
0.470588 0.411765 0.0
0.529412 0.411765 0.0
0.588235 0.411765 0.0
0.647059 0.411765 0.0
0.705882 0.411765 0.0
0.411765 0.470588 0.0
0.470588 0.470588 0.0
0.529412 0.470588 0.0
0.588235 0.470588 0.0
0.647059 0.470588 0.0
0.705882 0.470588 0.0
0.764706 0.058824 0.0
0.823529 0.058824 0.0
0.882353 0.058824 0.0
0.764706 0.117647 0.0
0.823529 0.117647 0.0
0.882353 0.117647 0.0
0.764706 0.176471 0.0
0.823529 0.176471 0.0
0.882353 0.176471 0.0
0.764706 0.235294 0.0
0.823529 0.235294 0.0
0.882353 0.235294 0.0
0.764706 0.294118 0.0
0.823529 0.294118 0.0
0.882353 0.294118 0.0
0.764706 0.352941 0.0
0.823529 0.352941 0.0
0.882353 0.352941 0.0
0.764706 0.411765 0.0
0.823529 0.411765 0.0
0.882353 0.411765 0.0
0.058824 0.529412 0.0
0.117647 0.529412 0.0
0.176471 0.529412 0.0
0.235294 0.529412 0.0
0.294118 0.529412 0.0
VERTICES 122 244
1 0
1 1
1 2
1 3
1 4
1 5
1 6
1 7
1 8
1 9
1 10
1 11
1 12
1 13
1 14
1 15
1 16
1 17
1 18
1 19
1 20
1 21
1 22
1 23
1 24
1 25
1 26
1 27
1 28
1 29
1 30
1 31
1 32
1 33
1 34
1 35
1 36
1 37
1 38
1 39
1 40
1 41
1 42
1 43
1 44
1 45
1 46
1 47
1 48
1 49
1 50
1 51
1 52
1 53
1 54
1 55
1 56
1 57
1 58
1 59
1 60
1 61
1 62
1 63
1 64
1 65
1 66
1 67
1 68
1 69
1 70
1 71
1 72
1 73
1 74
1 75
1 76
1 77
1 78
1 79
1 80
1 81
1 82
1 83
1 84
1 85
1 86
1 87
1 88
1 89
1 90
1 91
1 92
1 93
1 94
1 95
1 96
1 97
1 98
1 99
1 100
1 101
1 102
1 103
1 104
1 105
1 106
1 107
1 108
1 109
1 110
1 111
1 112
1 113
1 114
1 115
1 116
1 117
1 118
1 119
1 120
1 121
POINT_DATA 122
SCALARS attr0 float
LOOKUP_TABLE default
7.000000
8.000000
9.000000
10.000000
11.000000
12.000000
8.000000
9.000000
10.000000
11.000000
12.000000
13.000000
9.000000
10.000000
11.000000
12.000000
13.000000
14.000000
10.000000
11.000000
12.000000
13.000000
14.000000
15.000000
11.000000
12.000000
13.000000
14.000000
15.000000
16.000000
12.000000
13.000000
14.000000
15.000000
16.000000
17.000000
13.000000
14.000000
15.000000
16.000000
17.000000
18.000000
14.000000
15.000000
16.000000
17.000000
18.000000
19.000000
15.000000
16.000000
17.000000
18.000000
19.000000
20.000000
16.000000
17.000000
18.000000
19.000000
20.000000
21.000000
17.000000
18.000000
19.000000
20.000000
21.000000
22.000000
18.000000
19.000000
20.000000
21.000000
22.000000
23.000000
13.000000
14.000000
15.000000
16.000000
17.000000
18.000000
14.000000
15.000000
16.000000
17.000000
18.000000
19.000000
19.000000
20.000000
21.000000
22.000000
23.000000
24.000000
20.000000
21.000000
22.000000
23.000000
24.000000
25.000000
19.000000
20.000000
21.000000
20.000000
21.000000
22.000000
21.000000
22.000000
23.000000
22.000000
23.000000
24.000000
23.000000
24.000000
25.000000
24.000000
25.000000
26.000000
25.000000
26.000000
27.000000
15.000000
16.000000
17.000000
18.000000
19.000000
SCALARS domain float
LOOKUP_TABLE default
1.0
1.0
1.0
1.0
1.0
1.0
1.0
1.0
1.0
1.0
1.0
1.0
1.0
1.0
1.0
1.0
1.0
1.0
1.0
1.0
1.0
1.0
1.0
1.0
1.0
1.0
1.0
1.0
1.0
1.0
1.0
1.0
1.0
1.0
1.0
1.0
1.0
1.0
1.0
1.0
1.0
1.0
1.0
1.0
1.0
1.0
1.0
1.0
1.0
1.0
1.0
1.0
1.0
1.0
1.0
1.0
1.0
1.0
1.0
1.0
1.0
1.0
1.0
1.0
1.0
1.0
1.0
1.0
1.0
1.0
1.0
1.0
1.0
1.0
1.0
1.0
1.0
1.0
1.0
1.0
1.0
1.0
1.0
1.0
1.0
1.0
1.0
1.0
1.0
1.0
1.0
1.0
1.0
1.0
1.0
1.0
1.0
1.0
1.0
1.0
1.0
1.0
1.0
1.0
1.0
1.0
1.0
1.0
1.0
1.0
1.0
1.0
1.0
1.0
1.0
1.0
1.0
1.0
1.0
1.0
1.0
1.0
