# vtk DataFile Version 3.0
Graph
ASCII
DATASET POLYDATA
POINTS 16 float
0.000000 2.000000 0.000000
0.000000 3.000000 0.000000
1.000000 2.000000 0.000000
1.000000 3.000000 0.000000
2.000000 2.000000 0.000000
2.000000 3.000000 0.000000
3.000000 0.000000 0.000000
2.000000 0.000000 0.000000
0.000000 0.000000 0.000000
0.000000 1.000000 0.000000
1.000000 0.000000 0.000000
1.000000 1.000000 0.000000
3.000000 2.000000 0.000000
3.000000 3.000000 0.000000
2.000000 1.000000 0.000000
3.000000 1.000000 0.000000
VERTICES 16 32
1 0
1 1
1 2
1 3
1 4
1 5
1 6
1 7
1 8
1 9
1 10
1 11
1 12
1 13
1 14
1 15
LINES 24 72
2 0 1
2 0 2
2 1 3
2 2 3
2 2 4
2 3 5
2 4 5
2 4 12
2 5 13
2 6 15
2 7 14
2 7 6
2 8 9
2 8 10
2 9 0
2 9 11
2 10 11
2 10 7
2 11 2
2 11 14
2 12 13
2 14 4
2 14 15
2 15 12
POINT_DATA 16
SCALARS id unsigned_long
LOOKUP_TABLE default
0
1
2
3
5
6
7
4
8
9
10
11
12
13
14
15
SCALARS gid unsigned_long
LOOKUP_TABLE default
2
3
6
7
10
11
12
8
0
1
4
5
14
15
9
13
VECTORS x float
0.000000 2.000000 0.000000
0.000000 3.000000 0.000000
1.000000 2.000000 0.000000
1.000000 3.000000 0.000000
2.000000 2.000000 0.000000
2.000000 3.000000 0.000000
3.000000 0.000000 0.000000
2.000000 0.000000 0.000000
0.000000 0.000000 0.000000
0.000000 1.000000 0.000000
1.000000 0.000000 0.000000
1.000000 1.000000 0.000000
3.000000 2.000000 0.000000
3.000000 3.000000 0.000000
2.000000 1.000000 0.000000
3.000000 1.000000 0.000000
CELL_DATA 40
SCALARS prop unsigned_int
LOOKUP_TABLE default
0
0
0
0
0
0
0
0
0
0
0
0
0
0
0
0
0
0
0
0
0
0
0
0
0
0
0
0
0
0
0
0
0
0
0
0
0
0
0
0
