# vtk DataFile Version 3.0
Graph
ASCII
DATASET POLYDATA
POINTS 4913 float
0.000000 0.000000 0.000000
0.588235 0.000000 0.000000
1.176471 0.000000 0.000000
1.764706 0.000000 0.000000
2.352941 0.000000 0.000000
2.941177 0.000000 0.000000
3.529412 0.000000 0.000000
4.117647 0.000000 0.000000
4.705883 0.000000 0.000000
5.294118 0.000000 0.000000
5.882353 0.000000 0.000000
6.470589 0.000000 0.000000
7.058824 0.000000 0.000000
7.647059 0.000000 0.000000
8.235294 0.000000 0.000000
8.823530 0.000000 0.000000
9.411765 0.000000 0.000000
0.000000 0.588235 0.000000
0.588235 0.588235 0.000000
1.176471 0.588235 0.000000
1.764706 0.588235 0.000000
2.352941 0.588235 0.000000
2.941177 0.588235 0.000000
3.529412 0.588235 0.000000
4.117647 0.588235 0.000000
4.705883 0.588235 0.000000
5.294118 0.588235 0.000000
5.882353 0.588235 0.000000
6.470589 0.588235 0.000000
7.058824 0.588235 0.000000
7.647059 0.588235 0.000000
8.235294 0.588235 0.000000
8.823530 0.588235 0.000000
9.411765 0.588235 0.000000
0.000000 1.176471 0.000000
0.588235 1.176471 0.000000
1.176471 1.176471 0.000000
1.764706 1.176471 0.000000
2.352941 1.176471 0.000000
2.941177 1.176471 0.000000
3.529412 1.176471 0.000000
4.117647 1.176471 0.000000
4.705883 1.176471 0.000000
5.294118 1.176471 0.000000
5.882353 1.176471 0.000000
6.470589 1.176471 0.000000
7.058824 1.176471 0.000000
7.647059 1.176471 0.000000
8.235294 1.176471 0.000000
8.823530 1.176471 0.000000
9.411765 1.176471 0.000000
0.000000 1.764706 0.000000
0.588235 1.764706 0.000000
1.176471 1.764706 0.000000
1.764706 1.764706 0.000000
2.352941 1.764706 0.000000
2.941177 1.764706 0.000000
3.529412 1.764706 0.000000
4.117647 1.764706 0.000000
4.705883 1.764706 0.000000
5.294118 1.764706 0.000000
5.882353 1.764706 0.000000
6.470589 1.764706 0.000000
7.058824 1.764706 0.000000
7.647059 1.764706 0.000000
8.235294 1.764706 0.000000
8.823530 1.764706 0.000000
9.411765 1.764706 0.000000
0.000000 2.352941 0.000000
0.588235 2.352941 0.000000
1.176471 2.352941 0.000000
1.764706 2.352941 0.000000
2.352941 2.352941 0.000000
2.941177 2.352941 0.000000
3.529412 2.352941 0.000000
4.117647 2.352941 0.000000
4.705883 2.352941 0.000000
5.294118 2.352941 0.000000
5.882353 2.352941 0.000000
6.470589 2.352941 0.000000
7.058824 2.352941 0.000000
7.647059 2.352941 0.000000
8.235294 2.352941 0.000000
8.823530 2.352941 0.000000
9.411765 2.352941 0.000000
0.000000 2.941177 0.000000
0.588235 2.941177 0.000000
1.176471 2.941177 0.000000
1.764706 2.941177 0.000000
2.352941 2.941177 0.000000
2.941177 2.941177 0.000000
3.529412 2.941177 0.000000
4.117647 2.941177 0.000000
4.705883 2.941177 0.000000
5.294118 2.941177 0.000000
5.882353 2.941177 0.000000
6.470589 2.941177 0.000000
7.058824 2.941177 0.000000
7.647059 2.941177 0.000000
8.235294 2.941177 0.000000
8.823530 2.941177 0.000000
9.411765 2.941177 0.000000
0.000000 3.529412 0.000000
0.588235 3.529412 0.000000
1.176471 3.529412 0.000000
1.764706 3.529412 0.000000
2.352941 3.529412 0.000000
2.941177 3.529412 0.000000
3.529412 3.529412 0.000000
4.117647 3.529412 0.000000
4.705883 3.529412 0.000000
5.294118 3.529412 0.000000
5.882353 3.529412 0.000000
6.470589 3.529412 0.000000
7.058824 3.529412 0.000000
7.647059 3.529412 0.000000
8.235294 3.529412 0.000000
8.823530 3.529412 0.000000
9.411765 3.529412 0.000000
0.000000 4.117647 0.000000
0.588235 4.117647 0.000000
1.176471 4.117647 0.000000
1.764706 4.117647 0.000000
2.352941 4.117647 0.000000
2.941177 4.117647 0.000000
3.529412 4.117647 0.000000
4.117647 4.117647 0.000000
4.705883 4.117647 0.000000
5.294118 4.117647 0.000000
5.882353 4.117647 0.000000
6.470589 4.117647 0.000000
7.058824 4.117647 0.000000
7.647059 4.117647 0.000000
8.235294 4.117647 0.000000
8.823530 4.117647 0.000000
9.411765 4.117647 0.000000
0.000000 4.705883 0.000000
0.588235 4.705883 0.000000
1.176471 4.705883 0.000000
1.764706 4.705883 0.000000
2.352941 4.705883 0.000000
2.941177 4.705883 0.000000
3.529412 4.705883 0.000000
4.117647 4.705883 0.000000
4.705883 4.705883 0.000000
5.294118 4.705883 0.000000
5.882353 4.705883 0.000000
6.470589 4.705883 0.000000
7.058824 4.705883 0.000000
7.647059 4.705883 0.000000
8.235294 4.705883 0.000000
8.823530 4.705883 0.000000
9.411765 4.705883 0.000000
0.000000 5.294118 0.000000
0.588235 5.294118 0.000000
1.176471 5.294118 0.000000
1.764706 5.294118 0.000000
2.352941 5.294118 0.000000
2.941177 5.294118 0.000000
3.529412 5.294118 0.000000
4.117647 5.294118 0.000000
4.705883 5.294118 0.000000
5.294118 5.294118 0.000000
5.882353 5.294118 0.000000
6.470589 5.294118 0.000000
7.058824 5.294118 0.000000
7.647059 5.294118 0.000000
8.235294 5.294118 0.000000
8.823530 5.294118 0.000000
9.411765 5.294118 0.000000
0.000000 5.882353 0.000000
0.588235 5.882353 0.000000
1.176471 5.882353 0.000000
1.764706 5.882353 0.000000
2.352941 5.882353 0.000000
2.941177 5.882353 0.000000
3.529412 5.882353 0.000000
4.117647 5.882353 0.000000
4.705883 5.882353 0.000000
5.294118 5.882353 0.000000
5.882353 5.882353 0.000000
6.470589 5.882353 0.000000
7.058824 5.882353 0.000000
7.647059 5.882353 0.000000
8.235294 5.882353 0.000000
8.823530 5.882353 0.000000
9.411765 5.882353 0.000000
0.000000 6.470589 0.000000
0.588235 6.470589 0.000000
1.176471 6.470589 0.000000
1.764706 6.470589 0.000000
2.352941 6.470589 0.000000
2.941177 6.470589 0.000000
3.529412 6.470589 0.000000
4.117647 6.470589 0.000000
4.705883 6.470589 0.000000
5.294118 6.470589 0.000000
5.882353 6.470589 0.000000
6.470589 6.470589 0.000000
7.058824 6.470589 0.000000
7.647059 6.470589 0.000000
8.235294 6.470589 0.000000
8.823530 6.470589 0.000000
9.411765 6.470589 0.000000
0.000000 7.058824 0.000000
0.588235 7.058824 0.000000
1.176471 7.058824 0.000000
1.764706 7.058824 0.000000
2.352941 7.058824 0.000000
2.941177 7.058824 0.000000
3.529412 7.058824 0.000000
4.117647 7.058824 0.000000
4.705883 7.058824 0.000000
5.294118 7.058824 0.000000
5.882353 7.058824 0.000000
6.470589 7.058824 0.000000
7.058824 7.058824 0.000000
7.647059 7.058824 0.000000
8.235294 7.058824 0.000000
8.823530 7.058824 0.000000
9.411765 7.058824 0.000000
0.000000 7.647059 0.000000
0.588235 7.647059 0.000000
1.176471 7.647059 0.000000
1.764706 7.647059 0.000000
2.352941 7.647059 0.000000
2.941177 7.647059 0.000000
3.529412 7.647059 0.000000
4.117647 7.647059 0.000000
4.705883 7.647059 0.000000
5.294118 7.647059 0.000000
5.882353 7.647059 0.000000
6.470589 7.647059 0.000000
7.058824 7.647059 0.000000
7.647059 7.647059 0.000000
8.235294 7.647059 0.000000
8.823530 7.647059 0.000000
9.411765 7.647059 0.000000
0.000000 8.235294 0.000000
0.588235 8.235294 0.000000
1.176471 8.235294 0.000000
1.764706 8.235294 0.000000
2.352941 8.235294 0.000000
2.941177 8.235294 0.000000
3.529412 8.235294 0.000000
4.117647 8.235294 0.000000
4.705883 8.235294 0.000000
5.294118 8.235294 0.000000
5.882353 8.235294 0.000000
6.470589 8.235294 0.000000
7.058824 8.235294 0.000000
7.647059 8.235294 0.000000
8.235294 8.235294 0.000000
8.823530 8.235294 0.000000
9.411765 8.235294 0.000000
0.000000 8.823530 0.000000
0.588235 8.823530 0.000000
1.176471 8.823530 0.000000
1.764706 8.823530 0.000000
2.352941 8.823530 0.000000
2.941177 8.823530 0.000000
3.529412 8.823530 0.000000
4.117647 8.823530 0.000000
4.705883 8.823530 0.000000
5.294118 8.823530 0.000000
5.882353 8.823530 0.000000
6.470589 8.823530 0.000000
7.058824 8.823530 0.000000
7.647059 8.823530 0.000000
8.235294 8.823530 0.000000
8.823530 8.823530 0.000000
9.411765 8.823530 0.000000
0.000000 9.411765 0.000000
0.588235 9.411765 0.000000
1.176471 9.411765 0.000000
1.764706 9.411765 0.000000
2.352941 9.411765 0.000000
2.941177 9.411765 0.000000
3.529412 9.411765 0.000000
4.117647 9.411765 0.000000
4.705883 9.411765 0.000000
5.294118 9.411765 0.000000
5.882353 9.411765 0.000000
6.470589 9.411765 0.000000
7.058824 9.411765 0.000000
7.647059 9.411765 0.000000
8.235294 9.411765 0.000000
8.823530 9.411765 0.000000
9.411765 9.411765 0.000000
0.000000 0.000000 0.588235
0.588235 0.000000 0.588235
1.176471 0.000000 0.588235
1.764706 0.000000 0.588235
2.352941 0.000000 0.588235
2.941177 0.000000 0.588235
3.529412 0.000000 0.588235
4.117647 0.000000 0.588235
4.705883 0.000000 0.588235
5.294118 0.000000 0.588235
5.882353 0.000000 0.588235
6.470589 0.000000 0.588235
7.058824 0.000000 0.588235
7.647059 0.000000 0.588235
8.235294 0.000000 0.588235
8.823530 0.000000 0.588235
9.411765 0.000000 0.588235
0.000000 0.588235 0.588235
0.588235 0.588235 0.588235
1.176471 0.588235 0.588235
1.764706 0.588235 0.588235
2.352941 0.588235 0.588235
2.941177 0.588235 0.588235
3.529412 0.588235 0.588235
4.117647 0.588235 0.588235
4.705883 0.588235 0.588235
5.294118 0.588235 0.588235
5.882353 0.588235 0.588235
6.470589 0.588235 0.588235
7.058824 0.588235 0.588235
7.647059 0.588235 0.588235
8.235294 0.588235 0.588235
8.823530 0.588235 0.588235
9.411765 0.588235 0.588235
0.000000 1.176471 0.588235
0.588235 1.176471 0.588235
1.176471 1.176471 0.588235
1.764706 1.176471 0.588235
2.352941 1.176471 0.588235
2.941177 1.176471 0.588235
3.529412 1.176471 0.588235
4.117647 1.176471 0.588235
4.705883 1.176471 0.588235
5.294118 1.176471 0.588235
5.882353 1.176471 0.588235
6.470589 1.176471 0.588235
7.058824 1.176471 0.588235
7.647059 1.176471 0.588235
8.235294 1.176471 0.588235
8.823530 1.176471 0.588235
9.411765 1.176471 0.588235
0.000000 1.764706 0.588235
0.588235 1.764706 0.588235
1.176471 1.764706 0.588235
1.764706 1.764706 0.588235
2.352941 1.764706 0.588235
2.941177 1.764706 0.588235
3.529412 1.764706 0.588235
4.117647 1.764706 0.588235
4.705883 1.764706 0.588235
5.294118 1.764706 0.588235
5.882353 1.764706 0.588235
6.470589 1.764706 0.588235
7.058824 1.764706 0.588235
7.647059 1.764706 0.588235
8.235294 1.764706 0.588235
8.823530 1.764706 0.588235
9.411765 1.764706 0.588235
0.000000 2.352941 0.588235
0.588235 2.352941 0.588235
1.176471 2.352941 0.588235
1.764706 2.352941 0.588235
2.352941 2.352941 0.588235
2.941177 2.352941 0.588235
3.529412 2.352941 0.588235
4.117647 2.352941 0.588235
4.705883 2.352941 0.588235
5.294118 2.352941 0.588235
[...]
POINT_DATA 4913
VECTORS x float
0.000000 0.000000 0.000000
0.588235 0.000000 0.000000
1.176471 0.000000 0.000000
1.764706 0.000000 0.000000
2.352941 0.000000 0.000000
2.941177 0.000000 0.000000
3.529412 0.000000 0.000000
4.117647 0.000000 0.000000
4.705883 0.000000 0.000000
5.294118 0.000000 0.000000
5.882353 0.000000 0.000000
6.470589 0.000000 0.000000
7.058824 0.000000 0.000000
7.647059 0.000000 0.000000
8.235294 0.000000 0.000000
8.823530 0.000000 0.000000
9.411765 0.000000 0.000000
0.000000 0.588235 0.000000
0.588235 0.588235 0.000000
1.176471 0.588235 0.000000
1.764706 0.588235 0.000000
2.352941 0.588235 0.000000
2.941177 0.588235 0.000000
3.529412 0.588235 0.000000
4.117647 0.588235 0.000000
4.705883 0.588235 0.000000
5.294118 0.588235 0.000000
5.882353 0.588235 0.000000
6.470589 0.588235 0.000000
7.058824 0.588235 0.000000
7.647059 0.588235 0.000000
8.235294 0.588235 0.000000
8.823530 0.588235 0.000000
9.411765 0.588235 0.000000
0.000000 1.176471 0.000000
0.588235 1.176471 0.000000
1.176471 1.176471 0.000000
1.764706 1.176471 0.000000
2.352941 1.176471 0.000000
2.941177 1.176471 0.000000
3.529412 1.176471 0.000000
4.117647 1.176471 0.000000
4.705883 1.176471 0.000000
5.294118 1.176471 0.000000
5.882353 1.176471 0.000000
6.470589 1.176471 0.000000
7.058824 1.176471 0.000000
7.647059 1.176471 0.000000
8.235294 1.176471 0.000000
8.823530 1.176471 0.000000
9.411765 1.176471 0.000000
0.000000 1.764706 0.000000
0.588235 1.764706 0.000000
1.176471 1.764706 0.000000
1.764706 1.764706 0.000000
2.352941 1.764706 0.000000
2.941177 1.764706 0.000000
3.529412 1.764706 0.000000
4.117647 1.764706 0.000000
4.705883 1.764706 0.000000
5.294118 1.764706 0.000000
5.882353 1.764706 0.000000
6.470589 1.764706 0.000000
7.058824 1.764706 0.000000
7.647059 1.764706 0.000000
8.235294 1.764706 0.000000
8.823530 1.764706 0.000000
9.411765 1.764706 0.000000
0.000000 2.352941 0.000000
0.588235 2.352941 0.000000
1.176471 2.352941 0.000000
1.764706 2.352941 0.000000
2.352941 2.352941 0.000000
2.941177 2.352941 0.000000
3.529412 2.352941 0.000000
4.117647 2.352941 0.000000
4.705883 2.352941 0.000000
5.294118 2.352941 0.000000
5.882353 2.352941 0.000000
6.470589 2.352941 0.000000
7.058824 2.352941 0.000000
7.647059 2.352941 0.000000
8.235294 2.352941 0.000000
8.823530 2.352941 0.000000
9.411765 2.352941 0.000000
0.000000 2.941177 0.000000
0.588235 2.941177 0.000000
1.176471 2.941177 0.000000
1.764706 2.941177 0.000000
2.352941 2.941177 0.000000
2.941177 2.941177 0.000000
3.529412 2.941177 0.000000
4.117647 2.941177 0.000000
4.705883 2.941177 0.000000
5.294118 2.941177 0.000000
5.882353 2.941177 0.000000
6.470589 2.941177 0.000000
7.058824 2.941177 0.000000
7.647059 2.941177 0.000000
8.235294 2.941177 0.000000
8.823530 2.941177 0.000000
9.411765 2.941177 0.000000
0.000000 3.529412 0.000000
0.588235 3.529412 0.000000
1.176471 3.529412 0.000000
1.764706 3.529412 0.000000
2.352941 3.529412 0.000000
2.941177 3.529412 0.000000
3.529412 3.529412 0.000000
4.117647 3.529412 0.000000
4.705883 3.529412 0.000000
5.294118 3.529412 0.000000
5.882353 3.529412 0.000000
6.470589 3.529412 0.000000
7.058824 3.529412 0.000000
7.647059 3.529412 0.000000
8.235294 3.529412 0.000000
8.823530 3.529412 0.000000
9.411765 3.529412 0.000000
0.000000 4.117647 0.000000
0.588235 4.117647 0.000000
1.176471 4.117647 0.000000
1.764706 4.117647 0.000000
2.352941 4.117647 0.000000
2.941177 4.117647 0.000000
3.529412 4.117647 0.000000
4.117647 4.117647 0.000000
4.705883 4.117647 0.000000
5.294118 4.117647 0.000000
5.882353 4.117647 0.000000
6.470589 4.117647 0.000000
7.058824 4.117647 0.000000
7.647059 4.117647 0.000000
8.235294 4.117647 0.000000
8.823530 4.117647 0.000000
9.411765 4.117647 0.000000
0.000000 4.705883 0.000000
0.588235 4.705883 0.000000
1.176471 4.705883 0.000000
1.764706 4.705883 0.000000
2.352941 4.705883 0.000000
2.941177 4.705883 0.000000
3.529412 4.705883 0.000000
4.117647 4.705883 0.000000
4.705883 4.705883 0.000000
5.294118 4.705883 0.000000
5.882353 4.705883 0.000000
6.470589 4.705883 0.000000
7.058824 4.705883 0.000000
7.647059 4.705883 0.000000
8.235294 4.705883 0.000000
8.823530 4.705883 0.000000
9.411765 4.705883 0.000000
0.000000 5.294118 0.000000
0.588235 5.294118 0.000000
1.176471 5.294118 0.000000
1.764706 5.294118 0.000000
2.352941 5.294118 0.000000
2.941177 5.294118 0.000000
3.529412 5.294118 0.000000
4.117647 5.294118 0.000000
4.705883 5.294118 0.000000
5.294118 5.294118 0.000000
5.882353 5.294118 0.000000
6.470589 5.294118 0.000000
7.058824 5.294118 0.000000
7.647059 5.294118 0.000000
8.235294 5.294118 0.000000
8.823530 5.294118 0.000000
9.411765 5.294118 0.000000
0.000000 5.882353 0.000000
0.588235 5.882353 0.000000
1.176471 5.882353 0.000000
1.764706 5.882353 0.000000
2.352941 5.882353 0.000000
2.941177 5.882353 0.000000
3.529412 5.882353 0.000000
4.117647 5.882353 0.000000
4.705883 5.882353 0.000000
5.294118 5.882353 0.000000
5.882353 5.882353 0.000000
6.470589 5.882353 0.000000
7.058824 5.882353 0.000000
7.647059 5.882353 0.000000
8.235294 5.882353 0.000000
8.823530 5.882353 0.000000
9.411765 5.882353 0.000000
0.000000 6.470589 0.000000
0.588235 6.470589 0.000000
1.176471 6.470589 0.000000
1.764706 6.470589 0.000000
2.352941 6.470589 0.000000
2.941177 6.470589 0.000000
3.529412 6.470589 0.000000
4.117647 6.470589 0.000000
4.705883 6.470589 0.000000
5.294118 6.470589 0.000000
5.882353 6.470589 0.000000
6.470589 6.470589 0.000000
7.058824 6.470589 0.000000
7.647059 6.470589 0.000000
8.235294 6.470589 0.000000
8.823530 6.470589 0.000000
9.411765 6.470589 0.000000
0.000000 7.058824 0.000000
0.588235 7.058824 0.000000
1.176471 7.058824 0.000000
1.764706 7.058824 0.000000
2.352941 7.058824 0.000000
2.941177 7.058824 0.000000
3.529412 7.058824 0.000000
4.117647 7.058824 0.000000
4.705883 7.058824 0.000000
5.294118 7.058824 0.000000
5.882353 7.058824 0.000000
6.470589 7.058824 0.000000
7.058824 7.058824 0.000000
7.647059 7.058824 0.000000
8.235294 7.058824 0.000000
8.823530 7.058824 0.000000
9.411765 7.058824 0.000000
0.000000 7.647059 0.000000
0.588235 7.647059 0.000000
1.176471 7.647059 0.000000
1.764706 7.647059 0.000000
2.352941 7.647059 0.000000
2.941177 7.647059 0.000000
3.529412 7.647059 0.000000
4.117647 7.647059 0.000000
4.705883 7.647059 0.000000
5.294118 7.647059 0.000000
5.882353 7.647059 0.000000
6.470589 7.647059 0.000000
7.058824 7.647059 0.000000
7.647059 7.647059 0.000000
8.235294 7.647059 0.000000
8.823530 7.647059 0.000000
9.411765 7.647059 0.000000
0.000000 8.235294 0.000000
0.588235 8.235294 0.000000
1.176471 8.235294 0.000000
1.764706 8.235294 0.000000
2.352941 8.235294 0.000000
2.941177 8.235294 0.000000
3.529412 8.235294 0.000000
4.117647 8.235294 0.000000
4.705883 8.235294 0.000000
5.294118 8.235294 0.000000
5.882353 8.235294 0.000000
6.470589 8.235294 0.000000
7.058824 8.235294 0.000000
7.647059 8.235294 0.000000
8.235294 8.235294 0.000000
8.823530 8.235294 0.000000
9.411765 8.235294 0.000000
0.000000 8.823530 0.000000
0.588235 8.823530 0.000000
1.176471 8.823530 0.000000
1.764706 8.823530 0.000000
2.352941 8.823530 0.000000
2.941177 8.823530 0.000000
3.529412 8.823530 0.000000
4.117647 8.823530 0.000000
4.705883 8.823530 0.000000
5.294118 8.823530 0.000000
5.882353 8.823530 0.000000
6.470589 8.823530 0.000000
7.058824 8.823530 0.000000
7.647059 8.823530 0.000000
8.235294 8.823530 0.000000
8.823530 8.823530 0.000000
9.411765 8.823530 0.000000
0.000000 9.411765 0.000000
0.588235 9.411765 0.000000
1.176471 9.411765 0.000000
1.764706 9.411765 0.000000
2.352941 9.411765 0.000000
2.941177 9.411765 0.000000
3.529412 9.411765 0.000000
4.117647 9.411765 0.000000
4.705883 9.411765 0.000000
5.294118 9.411765 0.000000
5.882353 9.411765 0.000000
6.470589 9.411765 0.000000
7.058824 9.411765 0.000000
7.647059 9.411765 0.000000
8.235294 9.411765 0.000000
8.823530 9.411765 0.000000
9.411765 9.411765 0.000000
0.000000 0.000000 0.588235
0.588235 0.000000 0.588235
1.176471 0.000000 0.588235
1.764706 0.000000 0.588235
2.352941 0.000000 0.588235
2.941177 0.000000 0.588235
3.529412 0.000000 0.588235
4.117647 0.000000 0.588235
4.705883 0.000000 0.588235
5.294118 0.000000 0.588235
5.882353 0.000000 0.588235
6.470589 0.000000 0.588235
7.058824 0.000000 0.588235
7.647059 0.000000 0.588235
8.235294 0.000000 0.588235
8.823530 0.000000 0.588235
9.411765 0.000000 0.588235
0.000000 0.588235 0.588235
0.588235 0.588235 0.588235
1.176471 0.588235 0.588235
1.764706 0.588235 0.588235
2.352941 0.588235 0.588235
2.941177 0.588235 0.588235
3.529412 0.588235 0.588235
4.117647 0.588235 0.588235
4.705883 0.588235 0.588235
5.294118 0.588235 0.588235
5.882353 0.588235 0.588235
6.470589 0.588235 0.588235
7.058824 0.588235 0.588235
7.647059 0.588235 0.588235
8.235294 0.588235 0.588235
8.823530 0.588235 0.588235
9.411765 0.588235 0.588235
0.000000 1.176471 0.588235
0.588235 1.176471 0.588235
1.176471 1.176471 0.588235
1.764706 1.176471 0.588235
2.352941 1.176471 0.588235
2.941177 1.176471 0.588235
3.529412 1.176471 0.588235
4.117647 1.176471 0.588235
4.705883 1.176471 0.588235
5.294118 1.176471 0.588235
5.882353 1.176471 0.588235
6.470589 1.176471 0.588235
7.058824 1.176471 0.588235
7.647059 1.176471 0.588235
8.235294 1.176471 0.588235
8.823530 1.176471 0.588235
9.411765 1.176471 0.588235
0.000000 1.764706 0.588235
0.588235 1.764706 0.588235
1.176471 1.764706 0.588235
1.764706 1.764706 0.588235
2.352941 1.764706 0.588235
2.941177 1.764706 0.588235
3.529412 1.764706 0.588235
4.117647 1.764706 0.588235
4.705883 1.764706 0.588235
5.294118 1.764706 0.588235
5.882353 1.764706 0.588235
6.470589 1.764706 0.588235
7.058824 1.764706 0.588235
7.647059 1.764706 0.588235
8.235294 1.764706 0.588235
8.823530 1.764706 0.588235
9.411765 1.764706 0.588235
0.000000 2.352941 0.588235
0.588235 2.352941 0.588235
1.176471 2.352941 0.588235
1.764706 2.352941 0.588235
2.352941 2.352941 0.588235
2.941177 2.352941 0.588235
3.529412 2.352941 0.588235
4.117647 2.352941 0.588235
4.705883 2.352941 0.588235
5.294118 2.352941 0.588235
5.882353 2.352941 0.588235
6.470589 2.352941 0.588235
7.058824 2.352941 0.588235
7.647059 2.352941 0.588235
8.235294 2.352941 0.588235
8.823530 2.352941 0.588235
9.411765 2.352941 0.588235
0.000000 2.941177 0.588235
0.588235 2.941177 0.588235
1.176471 2.941177 0.588235
1.764706 2.941177 0.588235
2.352941 2.941177 0.588235
2.941177 2.941177 0.588235
3.529412 2.941177 0.588235
4.117647 2.941177 0.588235
4.705883 2.941177 0.588235
5.294118 2.941177 0.588235
5.882353 2.941177 0.588235
6.470589 2.941177 0.588235
7.058824 2.941177 0.588235
7.647059 2.941177 0.588235
8.235294 2.941177 0.588235
8.823530 2.941177 0.588235
9.411765 2.941177 0.588235
0.000000 3.529412 0.588235
0.588235 3.529412 0.588235
1.176471 3.529412 0.588235
1.764706 3.529412 0.588235
2.352941 3.529412 0.588235
2.941177 3.529412 0.588235
3.529412 3.529412 0.588235
4.117647 3.529412 0.588235
4.705883 3.529412 0.588235
5.294118 3.529412 0.588235
5.882353 3.529412 0.588235
6.470589 3.529412 0.588235
7.058824 3.529412 0.588235
7.647059 3.529412 0.588235
8.235294 3.529412 0.588235
8.823530 3.529412 0.588235
9.411765 3.529412 0.588235
0.000000 4.117647 0.588235
0.588235 4.117647 0.588235
1.176471 4.117647 0.588235
1.764706 4.117647 0.588235
2.352941 4.117647 0.588235
2.941177 4.117647 0.588235
3.529412 4.117647 0.588235
4.117647 4.117647 0.588235
4.705883 4.117647 0.588235
5.294118 4.117647 0.588235
5.882353 4.117647 0.588235
6.470589 4.117647 0.588235
7.058824 4.117647 0.588235
7.647059 4.117647 0.588235
8.235294 4.117647 0.588235
8.823530 4.117647 0.588235
9.411765 4.117647 0.588235
0.000000 4.705883 0.588235
0.588235 4.705883 0.588235
1.176471 4.705883 0.588235
1.764706 4.705883 0.588235
2.352941 4.705883 0.588235
2.941177 4.705883 0.588235
3.529412 4.705883 0.588235
4.117647 4.705883 0.588235
4.705883 4.705883 0.588235
5.294118 4.705883 0.588235
5.882353 4.705883 0.588235
6.470589 4.705883 0.588235
7.058824 4.705883 0.588235
7.647059 4.705883 0.588235
8.235294 4.705883 0.588235
8.823530 4.705883 0.588235
9.411765 4.705883 0.588235
0.000000 5.294118 0.588235
0.588235 5.294118 0.588235
1.176471 5.294118 0.588235
1.764706 5.294118 0.588235
2.352941 5.294118 0.588235
2.941177 5.294118 0.588235
3.529412 5.294118 0.588235
4.117647 5.294118 0.588235
4.705883 5.294118 0.588235
5.294118 5.294118 0.588235
5.882353 5.294118 0.588235
6.470589 5.294118 0.588235
7.058824 5.294118 0.588235
7.647059 5.294118 0.588235
8.235294 5.294118 0.588235
8.823530 5.294118 0.588235
9.411765 5.294118 0.588235
0.000000 5.882353 0.588235
0.588235 5.882353 0.588235
1.176471 5.882353 0.588235
1.764706 5.882353 0.588235
2.352941 5.882353 0.588235
2.941177 5.882353 0.588235
3.529412 5.882353 0.588235
4.117647 5.882353 0.588235
4.705883 5.882353 0.588235
5.294118 5.882353 0.588235
5.882353 5.882353 0.588235
6.470589 5.882353 0.588235
7.058824 5.882353 0.588235
7.647059 5.882353 0.588235
8.235294 5.882353 0.588235
8.823530 5.882353 0.588235
9.411765 5.882353 0.588235
0.000000 6.470589 0.588235
0.588235 6.470589 0.588235
1.176471 6.470589 0.588235
1.764706 6.470589 0.588235
2.352941 6.470589 0.588235
2.941177 6.470589 0.588235
3.529412 6.470589 0.588235
4.117647 6.470589 0.588235
4.705883 6.470589 0.588235
5.294118 6.470589 0.588235
5.882353 6.470589 0.588235
6.470589 6.470589 0.588235
7.058824 6.470589 0.588235
7.647059 6.470589 0.588235
8.235294 6.470589 0.588235
8.823530 6.470589 0.588235
9.411765 6.470589 0.588235
0.000000 7.058824 0.588235
0.588235 7.058824 0.588235
1.176471 7.058824 0.588235
1.764706 7.058824 0.588235
2.352941 7.058824 0.588235
2.941177 7.058824 0.588235
3.529412 7.058824 0.588235
4.117647 7.058824 0.588235
4.705883 7.058824 0.588235
5.294118 7.058824 0.588235
5.882353 7.058824 0.588235
6.470589 7.058824 0.588235
7.058824 7.058824 0.588235
7.647059 7.058824 0.588235
8.235294 7.058824 0.588235
8.823530 7.058824 0.588235
9.411765 7.058824 0.588235
0.000000 7.647059 0.588235
0.588235 7.647059 0.588235
1.176471 7.647059 0.588235
1.764706 7.647059 0.588235
2.352941 7.647059 0.588235
2.941177 7.647059 0.588235
3.529412 7.647059 0.588235
4.117647 7.647059 0.588235
4.705883 7.647059 0.588235
5.294118 7.647059 0.588235
5.882353 7.647059 0.588235
6.470589 7.647059 0.588235
7.058824 7.647059 0.588235
7.647059 7.647059 0.588235
8.235294 7.647059 0.588235
8.823530 7.647059 0.588235
9.411765 7.647059 0.588235
0.000000 8.235294 0.588235
0.588235 8.235294 0.588235
1.176471 8.235294 0.588235
1.764706 8.235294 0.588235
2.352941 8.235294 0.588235
2.941177 8.235294 0.588235
3.529412 8.235294 0.588235
4.117647 8.235294 0.588235
4.705883 8.235294 0.588235
5.294118 8.235294 0.588235
5.882353 8.235294 0.588235
6.470589 8.235294 0.588235
7.058824 8.235294 0.588235
7.647059 8.235294 0.588235
8.235294 8.235294 0.588235
8.823530 8.235294 0.588235
9.411765 8.235294 0.588235
0.000000 8.823530 0.588235
0.588235 8.823530 0.588235
1.176471 8.823530 0.588235
1.764706 8.823530 0.588235
2.352941 8.823530 0.588235
2.941177 8.823530 0.588235
3.529412 8.823530 0.588235
4.117647 8.823530 0.588235
4.705883 8.823530 0.588235
5.294118 8.823530 0.588235
5.882353 8.823530 0.588235
6.470589 8.823530 0.588235
7.058824 8.823530 0.588235
7.647059 8.823530 0.588235
8.235294 8.823530 0.588235
8.823530 8.823530 0.588235
9.411765 8.823530 0.588235
0.000000 9.411765 0.588235
0.588235 9.411765 0.588235
1.176471 9.411765 0.588235
1.764706 9.411765 0.588235
2.352941 9.411765 0.588235
2.941177 9.411765 0.588235
3.529412 9.411765 0.588235
4.117647 9.411765 0.588235
4.705883 9.411765 0.588235
5.294118 9.411765 0.588235
5.882353 9.411765 0.588235
6.470589 9.411765 0.588235
7.058824 9.411765 0.588235
7.647059 9.411765 0.588235
8.235294 9.411765 0.588235
8.823530 9.411765 0.588235
9.411765 9.411765 0.588235
0.000000 0.000000 1.176471
0.588235 0.000000 1.176471
1.176471 0.000000 1.176471
1.764706 0.000000 1.176471
2.352941 0.000000 1.176471
2.941177 0.000000 1.176471
3.529412 0.000000 1.176471
4.117647 0.000000 1.176471
4.705883 0.000000 1.176471
5.294118 0.000000 1.176471
5.882353 0.000000 1.176471
6.470589 0.000000 1.176471
7.058824 0.000000 1.176471
7.647059 0.000000 1.176471
8.235294 0.000000 1.176471
8.823530 0.000000 1.176471
9.411765 0.000000 1.176471
0.000000 0.588235 1.176471
0.588235 0.588235 1.176471
1.176471 0.588235 1.176471
1.764706 0.588235 1.176471
2.352941 0.588235 1.176471
2.941177 0.588235 1.176471
3.529412 0.588235 1.176471
4.117647 0.588235 1.176471
4.705883 0.588235 1.176471
5.294118 0.588235 1.176471
5.882353 0.588235 1.176471
6.470589 0.588235 1.176471
7.058824 0.588235 1.176471
7.647059 0.588235 1.176471
8.235294 0.588235 1.176471
8.823530 0.588235 1.176471
9.411765 0.588235 1.176471
0.000000 1.176471 1.176471
0.588235 1.176471 1.176471
1.176471 1.176471 1.176471
1.764706 1.176471 1.176471
2.352941 1.176471 1.176471
2.941177 1.176471 1.176471
3.529412 1.176471 1.176471
4.117647 1.176471 1.176471
4.705883 1.176471 1.176471
5.294118 1.176471 1.176471
5.882353 1.176471 1.176471
6.470589 1.176471 1.176471
7.058824 1.176471 1.176471
7.647059 1.176471 1.176471
8.235294 1.176471 1.176471
8.823530 1.176471 1.176471
9.411765 1.176471 1.176471
0.000000 1.764706 1.176471
0.588235 1.764706 1.176471
1.176471 1.764706 1.176471
1.764706 1.764706 1.176471
2.352941 1.764706 1.176471
2.941177 1.764706 1.176471
3.529412 1.764706 1.176471
4.117647 1.764706 1.176471
4.705883 1.764706 1.176471
5.294118 1.764706 1.176471
5.882353 1.764706 1.176471
6.470589 1.764706 1.176471
7.058824 1.764706 1.176471
7.647059 1.764706 1.176471
8.235294 1.764706 1.176471
8.823530 1.764706 1.176471
9.411765 1.764706 1.176471
0.000000 2.352941 1.176471
0.588235 2.352941 1.176471
1.176471 2.352941 1.176471
1.764706 2.352941 1.176471
2.352941 2.352941 1.176471
2.941177 2.352941 1.176471
3.529412 2.352941 1.176471
4.117647 2.352941 1.176471
4.705883 2.352941 1.176471
5.294118 2.352941 1.176471
5.882353 2.352941 1.176471
6.470589 2.352941 1.176471
7.058824 2.352941 1.176471
7.647059 2.352941 1.176471
8.235294 2.352941 1.176471
8.823530 2.352941 1.176471
9.411765 2.352941 1.176471
0.000000 2.941177 1.176471
0.588235 2.941177 1.176471
1.176471 2.941177 1.176471
1.764706 2.941177 1.176471
2.352941 2.941177 1.176471
2.941177 2.941177 1.176471
3.529412 2.941177 1.176471
4.117647 2.941177 1.176471
4.705883 2.941177 1.176471
5.294118 2.941177 1.176471
5.882353 2.941177 1.176471
6.470589 2.941177 1.176471
7.058824 2.941177 1.176471
7.647059 2.941177 1.176471
8.235294 2.941177 1.176471
8.823530 2.941177 1.176471
9.411765 2.941177 1.176471
0.000000 3.529412 1.176471
0.588235 3.529412 1.176471
1.176471 3.529412 1.176471
1.764706 3.529412 1.176471
2.352941 3.529412 1.176471
2.941177 3.529412 1.176471
3.529412 3.529412 1.176471
4.117647 3.529412 1.176471
4.705883 3.529412 1.176471
5.294118 3.529412 1.176471
5.882353 3.529412 1.176471
6.470589 3.529412 1.176471
7.058824 3.529412 1.176471
7.647059 3.529412 1.176471
8.235294 3.529412 1.176471
8.823530 3.529412 1.176471
9.411765 3.529412 1.176471
0.000000 4.117647 1.176471
0.588235 4.117647 1.176471
1.176471 4.117647 1.176471
1.764706 4.117647 1.176471
2.352941 4.117647 1.176471
2.941177 4.117647 1.176471
3.529412 4.117647 1.176471
4.117647 4.117647 1.176471
4.705883 4.117647 1.176471
5.294118 4.117647 1.176471
5.882353 4.117647 1.176471
6.470589 4.117647 1.176471
7.058824 4.117647 1.176471
7.647059 4.117647 1.176471
8.235294 4.117647 1.176471
8.823530 4.117647 1.176471
9.411765 4.117647 1.176471
0.000000 4.705883 1.176471
0.588235 4.705883 1.176471
1.176471 4.705883 1.176471
1.764706 4.705883 1.176471
2.352941 4.705883 1.176471
2.941177 4.705883 1.176471
3.529412 4.705883 1.176471
4.117647 4.705883 1.176471
4.705883 4.705883 1.176471
5.294118 4.705883 1.176471
5.882353 4.705883 1.176471
6.470589 4.705883 1.176471
7.058824 4.705883 1.176471
7.647059 4.705883 1.176471
8.235294 4.705883 1.176471
8.823530 4.705883 1.176471
9.411765 4.705883 1.176471
0.000000 5.294118 1.176471
0.588235 5.294118 1.176471
1.176471 5.294118 1.176471
1.764706 5.294118 1.176471
2.352941 5.294118 1.176471
2.941177 5.294118 1.176471
3.529412 5.294118 1.176471
4.117647 5.294118 1.176471