# vtk DataFile Version 3.0
Graph
ASCII
DATASET POLYDATA
POINTS 512 float
0.000000 0.000000 0.000000
1.250000 0.000000 0.000000
2.500000 0.000000 0.000000
3.750000 0.000000 0.000000
5.000000 0.000000 0.000000
6.250000 0.000000 0.000000
7.500000 0.000000 0.000000
8.750000 0.000000 0.000000
0.000000 1.250000 0.000000
1.250000 1.250000 0.000000
2.500000 1.250000 0.000000
3.750000 1.250000 0.000000
5.000000 1.250000 0.000000
6.250000 1.250000 0.000000
7.500000 1.250000 0.000000
8.750000 1.250000 0.000000
0.000000 2.500000 0.000000
1.250000 2.500000 0.000000
2.500000 2.500000 0.000000
3.750000 2.500000 0.000000
5.000000 2.500000 0.000000
6.250000 2.500000 0.000000
7.500000 2.500000 0.000000
8.750000 2.500000 0.000000
0.000000 3.750000 0.000000
1.250000 3.750000 0.000000
2.500000 3.750000 0.000000
3.750000 3.750000 0.000000
5.000000 3.750000 0.000000
6.250000 3.750000 0.000000
7.500000 3.750000 0.000000
8.750000 3.750000 0.000000
0.000000 5.000000 0.000000
1.250000 5.000000 0.000000
2.500000 5.000000 0.000000
3.750000 5.000000 0.000000
5.000000 5.000000 0.000000
6.250000 5.000000 0.000000
7.500000 5.000000 0.000000
8.750000 5.000000 0.000000
0.000000 6.250000 0.000000
1.250000 6.250000 0.000000
2.500000 6.250000 0.000000
3.750000 6.250000 0.000000
5.000000 6.250000 0.000000
6.250000 6.250000 0.000000
7.500000 6.250000 0.000000
8.750000 6.250000 0.000000
0.000000 7.500000 0.000000
1.250000 7.500000 0.000000
2.500000 7.500000 0.000000
3.750000 7.500000 0.000000
5.000000 7.500000 0.000000
6.250000 7.500000 0.000000
7.500000 7.500000 0.000000
8.750000 7.500000 0.000000
0.000000 8.750000 0.000000
1.250000 8.750000 0.000000
2.500000 8.750000 0.000000
3.750000 8.750000 0.000000
5.000000 8.750000 0.000000
6.250000 8.750000 0.000000
7.500000 8.750000 0.000000
8.750000 8.750000 0.000000
0.000000 0.000000 1.250000
1.250000 0.000000 1.250000
2.500000 0.000000 1.250000
3.750000 0.000000 1.250000
5.000000 0.000000 1.250000
6.250000 0.000000 1.250000
7.500000 0.000000 1.250000
8.750000 0.000000 1.250000
0.000000 1.250000 1.250000
1.250000 1.250000 1.250000
2.500000 1.250000 1.250000
3.750000 1.250000 1.250000
5.000000 1.250000 1.250000
6.250000 1.250000 1.250000
7.500000 1.250000 1.250000
8.750000 1.250000 1.250000
0.000000 2.500000 1.250000
1.250000 2.500000 1.250000
2.500000 2.500000 1.250000
3.750000 2.500000 1.250000
5.000000 2.500000 1.250000
6.250000 2.500000 1.250000
7.500000 2.500000 1.250000
8.750000 2.500000 1.250000
0.000000 3.750000 1.250000
1.250000 3.750000 1.250000
2.500000 3.750000 1.250000
3.750000 3.750000 1.250000
5.000000 3.750000 1.250000
6.250000 3.750000 1.250000
7.500000 3.750000 1.250000
8.750000 3.750000 1.250000
0.000000 5.000000 1.250000
1.250000 5.000000 1.250000
2.500000 5.000000 1.250000
3.750000 5.000000 1.250000
5.000000 5.000000 1.250000
6.250000 5.000000 1.250000
7.500000 5.000000 1.250000
8.750000 5.000000 1.250000
0.000000 6.250000 1.250000
1.250000 6.250000 1.250000
2.500000 6.250000 1.250000
3.750000 6.250000 1.250000
5.000000 6.250000 1.250000
6.250000 6.250000 1.250000
7.500000 6.250000 1.250000
8.750000 6.250000 1.250000
0.000000 7.500000 1.250000
1.250000 7.500000 1.250000
2.500000 7.500000 1.250000
3.750000 7.500000 1.250000
5.000000 7.500000 1.250000
6.250000 7.500000 1.250000
7.500000 7.500000 1.250000
8.750000 7.500000 1.250000
0.000000 8.750000 1.250000
1.250000 8.750000 1.250000
2.500000 8.750000 1.250000
3.750000 8.750000 1.250000
5.000000 8.750000 1.250000
6.250000 8.750000 1.250000
7.500000 8.750000 1.250000
8.750000 8.750000 1.250000
0.000000 0.000000 2.500000
1.250000 0.000000 2.500000
2.500000 0.000000 2.500000
3.750000 0.000000 2.500000
5.000000 0.000000 2.500000
6.250000 0.000000 2.500000
7.500000 0.000000 2.500000
8.750000 0.000000 2.500000
0.000000 1.250000 2.500000
1.250000 1.250000 2.500000
2.500000 1.250000 2.500000
3.750000 1.250000 2.500000
5.000000 1.250000 2.500000
6.250000 1.250000 2.500000
7.500000 1.250000 2.500000
8.750000 1.250000 2.500000
0.000000 2.500000 2.500000
1.250000 2.500000 2.500000
2.500000 2.500000 2.500000
3.750000 2.500000 2.500000
5.000000 2.500000 2.500000
6.250000 2.500000 2.500000
7.500000 2.500000 2.500000
8.750000 2.500000 2.500000
0.000000 3.750000 2.500000
1.250000 3.750000 2.500000
2.500000 3.750000 2.500000
3.750000 3.750000 2.500000
5.000000 3.750000 2.500000
6.250000 3.750000 2.500000
7.500000 3.750000 2.500000
8.750000 3.750000 2.500000
0.000000 5.000000 2.500000
1.250000 5.000000 2.500000
2.500000 5.000000 2.500000
3.750000 5.000000 2.500000
5.000000 5.000000 2.500000
6.250000 5.000000 2.500000
7.500000 5.000000 2.500000
8.750000 5.000000 2.500000
0.000000 6.250000 2.500000
1.250000 6.250000 2.500000
2.500000 6.250000 2.500000
3.750000 6.250000 2.500000
5.000000 6.250000 2.500000
6.250000 6.250000 2.500000
7.500000 6.250000 2.500000
8.750000 6.250000 2.500000
0.000000 7.500000 2.500000
1.250000 7.500000 2.500000
2.500000 7.500000 2.500000
3.750000 7.500000 2.500000
5.000000 7.500000 2.500000
6.250000 7.500000 2.500000
7.500000 7.500000 2.500000
8.750000 7.500000 2.500000
0.000000 8.750000 2.500000
1.250000 8.750000 2.500000
2.500000 8.750000 2.500000
3.750000 8.750000 2.500000
5.000000 8.750000 2.500000
6.250000 8.750000 2.500000
7.500000 8.750000 2.500000
8.750000 8.750000 2.500000
0.000000 0.000000 3.750000
1.250000 0.000000 3.750000
2.500000 0.000000 3.750000
3.750000 0.000000 3.750000
5.000000 0.000000 3.750000
6.250000 0.000000 3.750000
7.500000 0.000000 3.750000
8.750000 0.000000 3.750000
0.000000 1.250000 3.750000
1.250000 1.250000 3.750000
2.500000 1.250000 3.750000
3.750000 1.250000 3.750000
5.000000 1.250000 3.750000
6.250000 1.250000 3.750000
7.500000 1.250000 3.750000
8.750000 1.250000 3.750000
0.000000 2.500000 3.750000
1.250000 2.500000 3.750000
2.500000 2.500000 3.750000
3.750000 2.500000 3.750000
5.000000 2.500000 3.750000
6.250000 2.500000 3.750000
7.500000 2.500000 3.750000
8.750000 2.500000 3.750000
0.000000 3.750000 3.750000
1.250000 3.750000 3.750000
2.500000 3.750000 3.750000
3.750000 3.750000 3.750000
5.000000 3.750000 3.750000
6.250000 3.750000 3.750000
7.500000 3.750000 3.750000
8.750000 3.750000 3.750000
0.000000 5.000000 3.750000
1.250000 5.000000 3.750000
2.500000 5.000000 3.750000
3.750000 5.000000 3.750000
5.000000 5.000000 3.750000
6.250000 5.000000 3.750000
7.500000 5.000000 3.750000
8.750000 5.000000 3.750000
0.000000 6.250000 3.750000
1.250000 6.250000 3.750000
2.500000 6.250000 3.750000
3.750000 6.250000 3.750000
5.000000 6.250000 3.750000
6.250000 6.250000 3.750000
7.500000 6.250000 3.750000
8.750000 6.250000 3.750000
0.000000 7.500000 3.750000
1.250000 7.500000 3.750000
2.500000 7.500000 3.750000
3.750000 7.500000 3.750000
5.000000 7.500000 3.750000
6.250000 7.500000 3.750000
7.500000 7.500000 3.750000
8.750000 7.500000 3.750000
0.000000 8.750000 3.750000
1.250000 8.750000 3.750000
2.500000 8.750000 3.750000
3.750000 8.750000 3.750000
5.000000 8.750000 3.750000
6.250000 8.750000 3.750000
7.500000 8.750000 3.750000
8.750000 8.750000 3.750000
0.000000 0.000000 5.000000
1.250000 0.000000 5.000000
2.500000 0.000000 5.000000
3.750000 0.000000 5.000000
5.000000 0.000000 5.000000
6.250000 0.000000 5.000000
7.500000 0.000000 5.000000
8.750000 0.000000 5.000000
0.000000 1.250000 5.000000
1.250000 1.250000 5.000000
2.500000 1.250000 5.000000
3.750000 1.250000 5.000000
5.000000 1.250000 5.000000
6.250000 1.250000 5.000000
7.500000 1.250000 5.000000
8.750000 1.250000 5.000000
0.000000 2.500000 5.000000
1.250000 2.500000 5.000000
2.500000 2.500000 5.000000
3.750000 2.500000 5.000000
5.000000 2.500000 5.000000
6.250000 2.500000 5.000000
7.500000 2.500000 5.000000
8.750000 2.500000 5.000000
0.000000 3.750000 5.000000
1.250000 3.750000 5.000000
2.500000 3.750000 5.000000
3.750000 3.750000 5.000000
5.000000 3.750000 5.000000
6.250000 3.750000 5.000000
7.500000 3.750000 5.000000
8.750000 3.750000 5.000000
0.000000 5.000000 5.000000
1.250000 5.000000 5.000000
2.500000 5.000000 5.000000
3.750000 5.000000 5.000000
5.000000 5.000000 5.000000
6.250000 5.000000 5.000000
7.500000 5.000000 5.000000
8.750000 5.000000 5.000000
0.000000 6.250000 5.000000
1.250000 6.250000 5.000000
2.500000 6.250000 5.000000
3.750000 6.250000 5.000000
5.000000 6.250000 5.000000
6.250000 6.250000 5.000000
7.500000 6.250000 5.000000
8.750000 6.250000 5.000000
0.000000 7.500000 5.000000
1.250000 7.500000 5.000000
2.500000 7.500000 5.000000
3.750000 7.500000 5.000000
5.000000 7.500000 5.000000
6.250000 7.500000 5.000000
7.500000 7.500000 5.000000
8.750000 7.500000 5.000000
0.000000 8.750000 5.000000
1.250000 8.750000 5.000000
2.500000 8.750000 5.000000
3.750000 8.750000 5.000000
5.000000 8.750000 5.000000
6.250000 8.750000 5.000000
7.500000 8.750000 5.000000
8.750000 8.750000 5.000000
0.000000 0.000000 6.250000
1.250000 0.000000 6.250000
2.500000 0.000000 6.250000
3.750000 0.000000 6.250000
5.000000 0.000000 6.250000
6.250000 0.000000 6.250000
7.500000 0.000000 6.250000
8.750000 0.000000 6.250000
0.000000 1.250000 6.250000
1.250000 1.250000 6.250000
2.500000 1.250000 6.250000
3.750000 1.250000 6.250000
5.000000 1.250000 6.250000
6.250000 1.250000 6.250000
7.500000 1.250000 6.250000
8.750000 1.250000 6.250000
0.000000 2.500000 6.250000
1.250000 2.500000 6.250000
2.500000 2.500000 6.250000
3.750000 2.500000 6.250000
5.000000 2.500000 6.250000
6.250000 2.500000 6.250000
7.500000 2.500000 6.250000
8.750000 2.500000 6.250000
0.000000 3.750000 6.250000
1.250000 3.750000 6.250000
2.500000 3.750000 6.250000
3.750000 3.750000 6.250000
5.000000 3.750000 6.250000
6.250000 3.750000 6.250000
7.500000 3.750000 6.250000
8.750000 3.750000 6.250000
0.000000 5.000000 6.250000
1.250000 5.000000 6.250000
2.500000 5.000000 6.250000
3.750000 5.000000 6.250000
5.000000 5.000000 6.250000
6.250000 5.000000 6.250000
7.500000 5.000000 6.250000
8.750000 5.000000 6.250000
0.000000 6.250000 6.250000
1.250000 6.250000 6.250000
2.500000 6.250000 6.250000
3.750000 6.250000 6.250000
5.000000 6.250000 6.250000
6.250000 6.250000 6.250000
7.500000 6.250000 6.250000
[...]
POINT_DATA 512
VECTORS x float
0.000000 0.000000 0.000000
1.250000 0.000000 0.000000
2.500000 0.000000 0.000000
3.750000 0.000000 0.000000
5.000000 0.000000 0.000000
6.250000 0.000000 0.000000
7.500000 0.000000 0.000000
8.750000 0.000000 0.000000
0.000000 1.250000 0.000000
1.250000 1.250000 0.000000
2.500000 1.250000 0.000000
3.750000 1.250000 0.000000
5.000000 1.250000 0.000000
6.250000 1.250000 0.000000
7.500000 1.250000 0.000000
8.750000 1.250000 0.000000
0.000000 2.500000 0.000000
1.250000 2.500000 0.000000
2.500000 2.500000 0.000000
3.750000 2.500000 0.000000
5.000000 2.500000 0.000000
6.250000 2.500000 0.000000
7.500000 2.500000 0.000000
8.750000 2.500000 0.000000
0.000000 3.750000 0.000000
1.250000 3.750000 0.000000
2.500000 3.750000 0.000000
3.750000 3.750000 0.000000
5.000000 3.750000 0.000000
6.250000 3.750000 0.000000
7.500000 3.750000 0.000000
8.750000 3.750000 0.000000
0.000000 5.000000 0.000000
1.250000 5.000000 0.000000
2.500000 5.000000 0.000000
3.750000 5.000000 0.000000
5.000000 5.000000 0.000000
6.250000 5.000000 0.000000
7.500000 5.000000 0.000000
8.750000 5.000000 0.000000
0.000000 6.250000 0.000000
1.250000 6.250000 0.000000
2.500000 6.250000 0.000000
3.750000 6.250000 0.000000
5.000000 6.250000 0.000000
6.250000 6.250000 0.000000
7.500000 6.250000 0.000000
8.750000 6.250000 0.000000
0.000000 7.500000 0.000000
1.250000 7.500000 0.000000
2.500000 7.500000 0.000000
3.750000 7.500000 0.000000
5.000000 7.500000 0.000000
6.250000 7.500000 0.000000
7.500000 7.500000 0.000000
8.750000 7.500000 0.000000
0.000000 8.750000 0.000000
1.250000 8.750000 0.000000
2.500000 8.750000 0.000000
3.750000 8.750000 0.000000
5.000000 8.750000 0.000000
6.250000 8.750000 0.000000
7.500000 8.750000 0.000000
8.750000 8.750000 0.000000
0.000000 0.000000 1.250000
1.250000 0.000000 1.250000
2.500000 0.000000 1.250000
3.750000 0.000000 1.250000
5.000000 0.000000 1.250000
6.250000 0.000000 1.250000
7.500000 0.000000 1.250000
8.750000 0.000000 1.250000
0.000000 1.250000 1.250000
1.250000 1.250000 1.250000
2.500000 1.250000 1.250000
3.750000 1.250000 1.250000
5.000000 1.250000 1.250000
6.250000 1.250000 1.250000
7.500000 1.250000 1.250000
8.750000 1.250000 1.250000
0.000000 2.500000 1.250000
1.250000 2.500000 1.250000
2.500000 2.500000 1.250000
3.750000 2.500000 1.250000
5.000000 2.500000 1.250000
6.250000 2.500000 1.250000
7.500000 2.500000 1.250000
8.750000 2.500000 1.250000
0.000000 3.750000 1.250000
1.250000 3.750000 1.250000
2.500000 3.750000 1.250000
3.750000 3.750000 1.250000
5.000000 3.750000 1.250000
6.250000 3.750000 1.250000
7.500000 3.750000 1.250000
8.750000 3.750000 1.250000
0.000000 5.000000 1.250000
1.250000 5.000000 1.250000
2.500000 5.000000 1.250000
3.750000 5.000000 1.250000
5.000000 5.000000 1.250000
6.250000 5.000000 1.250000
7.500000 5.000000 1.250000
8.750000 5.000000 1.250000
0.000000 6.250000 1.250000
1.250000 6.250000 1.250000
2.500000 6.250000 1.250000
3.750000 6.250000 1.250000
5.000000 6.250000 1.250000
6.250000 6.250000 1.250000
7.500000 6.250000 1.250000
8.750000 6.250000 1.250000
0.000000 7.500000 1.250000
1.250000 7.500000 1.250000
2.500000 7.500000 1.250000
3.750000 7.500000 1.250000
5.000000 7.500000 1.250000
6.250000 7.500000 1.250000
7.500000 7.500000 1.250000
8.750000 7.500000 1.250000
0.000000 8.750000 1.250000
1.250000 8.750000 1.250000
2.500000 8.750000 1.250000
3.750000 8.750000 1.250000
5.000000 8.750000 1.250000
6.250000 8.750000 1.250000
7.500000 8.750000 1.250000
8.750000 8.750000 1.250000
0.000000 0.000000 2.500000
1.250000 0.000000 2.500000
2.500000 0.000000 2.500000
3.750000 0.000000 2.500000
5.000000 0.000000 2.500000
6.250000 0.000000 2.500000
7.500000 0.000000 2.500000
8.750000 0.000000 2.500000
0.000000 1.250000 2.500000
1.250000 1.250000 2.500000
2.500000 1.250000 2.500000
3.750000 1.250000 2.500000
5.000000 1.250000 2.500000
6.250000 1.250000 2.500000
7.500000 1.250000 2.500000
8.750000 1.250000 2.500000
0.000000 2.500000 2.500000
1.250000 2.500000 2.500000
2.500000 2.500000 2.500000
3.750000 2.500000 2.500000
5.000000 2.500000 2.500000
6.250000 2.500000 2.500000
7.500000 2.500000 2.500000
8.750000 2.500000 2.500000
0.000000 3.750000 2.500000
1.250000 3.750000 2.500000
2.500000 3.750000 2.500000
3.750000 3.750000 2.500000
5.000000 3.750000 2.500000
6.250000 3.750000 2.500000
7.500000 3.750000 2.500000
8.750000 3.750000 2.500000
0.000000 5.000000 2.500000
1.250000 5.000000 2.500000
2.500000 5.000000 2.500000
3.750000 5.000000 2.500000
5.000000 5.000000 2.500000
6.250000 5.000000 2.500000
7.500000 5.000000 2.500000
8.750000 5.000000 2.500000
0.000000 6.250000 2.500000
1.250000 6.250000 2.500000
2.500000 6.250000 2.500000
3.750000 6.250000 2.500000
5.000000 6.250000 2.500000
6.250000 6.250000 2.500000
7.500000 6.250000 2.500000
8.750000 6.250000 2.500000
0.000000 7.500000 2.500000
1.250000 7.500000 2.500000
2.500000 7.500000 2.500000
3.750000 7.500000 2.500000
5.000000 7.500000 2.500000
6.250000 7.500000 2.500000
7.500000 7.500000 2.500000
8.750000 7.500000 2.500000
0.000000 8.750000 2.500000
1.250000 8.750000 2.500000
2.500000 8.750000 2.500000
3.750000 8.750000 2.500000
5.000000 8.750000 2.500000
6.250000 8.750000 2.500000
7.500000 8.750000 2.500000
8.750000 8.750000 2.500000
0.000000 0.000000 3.750000
1.250000 0.000000 3.750000
2.500000 0.000000 3.750000
3.750000 0.000000 3.750000
5.000000 0.000000 3.750000
6.250000 0.000000 3.750000
7.500000 0.000000 3.750000
8.750000 0.000000 3.750000
0.000000 1.250000 3.750000
1.250000 1.250000 3.750000
2.500000 1.250000 3.750000
3.750000 1.250000 3.750000
5.000000 1.250000 3.750000
6.250000 1.250000 3.750000
7.500000 1.250000 3.750000
8.750000 1.250000 3.750000
0.000000 2.500000 3.750000
1.250000 2.500000 3.750000
2.500000 2.500000 3.750000
3.750000 2.500000 3.750000
5.000000 2.500000 3.750000
6.250000 2.500000 3.750000
7.500000 2.500000 3.750000
8.750000 2.500000 3.750000
0.000000 3.750000 3.750000
1.250000 3.750000 3.750000
2.500000 3.750000 3.750000
3.750000 3.750000 3.750000
5.000000 3.750000 3.750000
6.250000 3.750000 3.750000
7.500000 3.750000 3.750000
8.750000 3.750000 3.750000
0.000000 5.000000 3.750000
1.250000 5.000000 3.750000
2.500000 5.000000 3.750000
3.750000 5.000000 3.750000
5.000000 5.000000 3.750000
6.250000 5.000000 3.750000
7.500000 5.000000 3.750000
8.750000 5.000000 3.750000
0.000000 6.250000 3.750000
1.250000 6.250000 3.750000
2.500000 6.250000 3.750000
3.750000 6.250000 3.750000
5.000000 6.250000 3.750000
6.250000 6.250000 3.750000
7.500000 6.250000 3.750000
8.750000 6.250000 3.750000
0.000000 7.500000 3.750000
1.250000 7.500000 3.750000
2.500000 7.500000 3.750000
3.750000 7.500000 3.750000
5.000000 7.500000 3.750000
6.250000 7.500000 3.750000
7.500000 7.500000 3.750000
8.750000 7.500000 3.750000
0.000000 8.750000 3.750000
1.250000 8.750000 3.750000
2.500000 8.750000 3.750000
3.750000 8.750000 3.750000
5.000000 8.750000 3.750000
6.250000 8.750000 3.750000
7.500000 8.750000 3.750000
8.750000 8.750000 3.750000
0.000000 0.000000 5.000000
1.250000 0.000000 5.000000
2.500000 0.000000 5.000000
3.750000 0.000000 5.000000
5.000000 0.000000 5.000000
6.250000 0.000000 5.000000
7.500000 0.000000 5.000000
8.750000 0.000000 5.000000
0.000000 1.250000 5.000000
1.250000 1.250000 5.000000
2.500000 1.250000 5.000000
3.750000 1.250000 5.000000
5.000000 1.250000 5.000000
6.250000 1.250000 5.000000
7.500000 1.250000 5.000000
8.750000 1.250000 5.000000
0.000000 2.500000 5.000000
1.250000 2.500000 5.000000
2.500000 2.500000 5.000000
3.750000 2.500000 5.000000
5.000000 2.500000 5.000000
6.250000 2.500000 5.000000
7.500000 2.500000 5.000000
8.750000 2.500000 5.000000
0.000000 3.750000 5.000000
1.250000 3.750000 5.000000
2.500000 3.750000 5.000000
3.750000 3.750000 5.000000
5.000000 3.750000 5.000000
6.250000 3.750000 5.000000
7.500000 3.750000 5.000000
8.750000 3.750000 5.000000
0.000000 5.000000 5.000000
1.250000 5.000000 5.000000
2.500000 5.000000 5.000000
3.750000 5.000000 5.000000
5.000000 5.000000 5.000000
6.250000 5.000000 5.000000
7.500000 5.000000 5.000000
8.750000 5.000000 5.000000
0.000000 6.250000 5.000000
1.250000 6.250000 5.000000
2.500000 6.250000 5.000000
3.750000 6.250000 5.000000
5.000000 6.250000 5.000000
6.250000 6.250000 5.000000
7.500000 6.250000 5.000000
8.750000 6.250000 5.000000
0.000000 7.500000 5.000000
1.250000 7.500000 5.000000
2.500000 7.500000 5.000000
3.750000 7.500000 5.000000
5.000000 7.500000 5.000000
6.250000 7.500000 5.000000
7.500000 7.500000 5.000000
8.750000 7.500000 5.000000
0.000000 8.750000 5.000000
1.250000 8.750000 5.000000
2.500000 8.750000 5.000000
3.750000 8.750000 5.000000
5.000000 8.750000 5.000000
6.250000 8.750000 5.000000
7.500000 8.750000 5.000000
8.750000 8.750000 5.000000
0.000000 0.000000 6.250000
1.250000 0.000000 6.250000
2.500000 0.000000 6.250000
3.750000 0.000000 6.250000
5.000000 0.000000 6.250000
6.250000 0.000000 6.250000
7.500000 0.000000 6.250000
8.750000 0.000000 6.250000
0.000000 1.250000 6.250000
1.250000 1.250000 6.250000
2.500000 1.250000 6.250000
3.750000 1.250000 6.250000
5.000000 1.250000 6.250000
6.250000 1.250000 6.250000
7.500000 1.250000 6.250000
8.750000 1.250000 6.250000
0.000000 2.500000 6.250000
1.250000 2.500000 6.250000
2.500000 2.500000 6.250000
3.750000 2.500000 6.250000
5.000000 2.500000 6.250000
6.250000 2.500000 6.250000
7.500000 2.500000 6.250000
8.750000 2.500000 6.250000
0.000000 3.750000 6.250000
1.250000 3.750000 6.250000
2.500000 3.750000 6.250000
3.750000 3.750000 6.250000
5.000000 3.750000 6.250000
6.250000 3.750000 6.250000
7.500000 3.750000 6.250000
8.750000 3.750000 6.250000
0.000000 5.000000 6.250000
1.250000 5.000000 6.250000
2.500000 5.000000 6.250000
3.750000 5.000000 6.250000
5.000000 5.000000 6.250000
6.250000 5.000000 6.250000
7.500000 5.000000 6.250000
8.750000 5.000000 6.250000
0.000000 6.250000 6.250000
1.250000 6.250000 6.250000
2.500000 6.250000 6.250000
3.750000 6.250000 6.250000
5.000000 6.250000 6.250000
6.250000 6.250000 6.250000
7.500000 6.250000 6.250000
8.750000 6.250000 6.250000
0.000000 7.500000 6.250000
1.250000 7.500000 6.250000
2.500000 7.500000 6.250000
3.750000 7.500000 6.250000
5.000000 7.500000 6.250000
6.250000 7.500000 6.250000
7.500000 7.500000 6.250000
8.750000 7.500000 6.250000
0.000000 8.750000 6.250000
1.250000 8.750000 6.250000
2.500000 8.750000 6.250000
3.750000 8.750000 6.250000
5.000000 8.750000 6.250000
6.250000 8.750000 6.250000
7.500000 8.750000 6.250000
8.750000 8.750000 6.250000
0.000000 0.000000 7.500000
1.250000 0.000000 7.500000
2.500000 0.000000 7.500000
3.750000 0.000000 7.500000
5.000000 0.000000 7.500000
6.250000 0.000000 7.500000
7.500000 0.000000 7.500000
8.750000 0.000000 7.500000
0.000000 1.250000 7.500000
1.250000 1.250000 7.500000
2.500000 1.250000 7.500000
3.750000 1.250000 7.500000
5.000000 1.250000 7.500000
6.250000 1.250000 7.500000
7.500000 1.250000 7.500000
8.750000 1.250000 7.500000
0.000000 2.500000 7.500000
1.250000 2.500000 7.500000
2.500000 2.500000 7.500000
3.750000 2.500000 7.500000
5.000000 2.500000 7.500000
6.250000 2.500000 7.500000
7.500000 2.500000 7.500000
8.750000 2.500000 7.500000
0.000000 3.750000 7.500000
1.250000 3.750000 7.500000
2.500000 3.750000 7.500000
3.750000 3.750000 7.500000
5.000000 3.750000 7.500000
6.250000 3.750000 7.500000
7.500000 3.750000 7.500000
8.750000 3.750000 7.500000
0.000000 5.000000 7.500000
1.250000 5.000000 7.500000
2.500000 5.000000 7.500000
3.750000 5.000000 7.500000
5.000000 5.000000 7.500000
6.250000 5.000000 7.500000
7.500000 5.000000 7.500000
8.750000 5.000000 7.500000
0.000000 6.250000 7.500000
1.250000 6.250000 7.500000
2.500000 6.250000 7.500000
3.750000 6.250000 7.500000
5.000000 6.250000 7.500000
6.250000 6.250000 7.500000
7.500000 6.250000 7.500000
8.750000 6.250000 7.500000
0.000000 7.500000 7.500000
1.250000 7.500000 7.500000
2.500000 7.500000 7.500000
3.750000 7.500000 7.500000
5.000000 7.500000 7.500000
6.250000 7.500000 7.500000
7.500000 7.500000 7.500000
8.750000 7.500000 7.500000
0.000000 8.750000 7.500000
1.250000 8.750000 7.500000
2.500000 8.750000 7.500000
3.750000 8.750000 7.500000
5.000000 8.750000 7.500000
6.250000 8.750000 7.500000
7.500000 8.750000 7.500000
8.750000 8.750000 7.500000
0.000000 0.000000 8.750000
1.250000 0.000000 8.750000
2.500000 0.000000 8.750000
3.750000 0.000000 8.750000
5.000000 0.000000 8.750000
6.250000 0.000000 8.750000
7.500000 0.000000 8.750000
8.750000 0.000000 8.750000
0.000000 1.250000 8.750000
1.250000 1.250000 8.750000
2.500000 1.250000 8.750000
3.750000 1.250000 8.750000
5.000000 1.250000 8.750000
6.250000 1.250000 8.750000
7.500000 1.250000 8.750000
8.750000 1.250000 8.750000
0.000000 2.500000 8.750000
1.250000 2.500000 8.750000
2.500000 2.500000 8.750000
3.750000 2.500000 8.750000
5.000000 2.500000 8.750000
6.250000 2.500000 8.750000
7.500000 2.500000 8.750000
8.750000 2.500000 8.750000
0.000000 3.750000 8.750000
1.250000 3.750000 8.750000
2.500000 3.750000 8.750000
3.750000 3.750000 8.750000
5.000000 3.750000 8.750000
6.250000 3.750000 8.750000
7.500000 3.750000 8.750000
8.750000 3.750000 8.750000
0.000000 5.000000 8.750000
1.250000 5.000000 8.750000
2.500000 5.000000 8.750000
3.750000 5.000000 8.750000
5.000000 5.000000 8.750000
6.250000 5.000000 8.750000
7.500000 5.000000 8.750000
8.750000 5.000000 8.750000
0.000000 6.250000 8.750000
1.250000 6.250000 8.750000
2.500000 6.250000 8.750000
3.750000 6.250000 8.750000
5.000000 6.250000 8.750000
6.250000 6.250000 8.750000
7.500000 6.250000 8.750000
8.750000 6.250000 8.750000
0.000000 7.500000 8.750000
1.250000 7.500000 8.750000
2.500000 7.500000 8.750000
3.750000 7.500000 8.750000
5.000000 7.500000 8.750000
6.250000 7.500000 8.750000
7.500000 7.500000 8.750000
8.750000 7.500000 8.750000
0.000000 8.750000 8.750000
1.250000 8.750000 8.750000
2.500000 8.750000 8.750000
3.750000 8.750000 8.750000
5.000000 8.750000 8.750000
6.250000 8.750000 8.750000
7.500000 8.750000 8.750000
8.750000 8.750000 8.750000
SCALARS migration unsigned_long
LOOKUP_TABLE default
2
2
2
2
2
2
2
2
2
2
2
2
2
2
2
2
2
2
2
2
2
2
2
2
2
2
2
2
2
2
2
2
2
2
2
2
2
2
2
2
2
2
2
2
2
2
2
2
2
2
2
2
2
2
2
2
2
2
2
2
2
2
2
2
2
2
2
2
2
2
2
2
2
2
2
2
2
2
2
2
2
2
2
2
2
2
2
2
2
2
2
2
2
2
2
2
2
2
2
2
2
2
2
2
2
2
2
2
2
2
2
2
2
2
2
2
2
2
2
2
2
2
2
2
2
2
2
2
2
2
2
2
2
2
2
2
2
2
2
2
2
2
2
2
2
2
2
2
2
2
2
2
2
2
2
2
2
2
2
2
2
2
2
2
2
2
2
2
2
2
2
2
2
2
2
2
2
2
2
2
2
2
2
2
2
2
2
2
2
2
2
2
2
2
2
2
2
2
2
2
2
2
2
2
2
2
2
2
2
2
2
2
2
2
2
2
2
2
2
2
10
2
2
2
2
2
2
10
10
10
2
2
2
2
2
2
10
2
2
2
2
2
2
2
2
2
2
2
2
2
2
2
2
2
2
2
2
2
2
2
2
2
2
2
2
2
2
2
2
2
2
2
2
2
2
2
2
2
2
2
2
2
2
10
10
10
2
2
2
2
2
10
10
10
2
2
2
2
2
10
10
10
2
2
2
2
2
2
2
2
2
2
2
2
2
2
2
2
2
2
2
2
2
2
2
2
2
2
2
2
2
2
2
2
2
2
2
2
2
2
2
2
2
2
2
2
2
2
10
2
2
2
2
2
2
10
10
10
2
2
2
2
2
2
10
2
2
2
2
2
2
2
2
2
2
2
2
2
2
2
2
2
2
2
2
2
2
2
2
2
2
2
2
2
2
2
2
2
2
2
2
2
2
2
2
2
2
2
2
2
2
2
2
2
2
2
2
2
2
2
2
2
2
2
2
2
2
2
2
2
2
2
2
2
2
2
2
2
2
2
2
2
2
2
2
2
2
2
2
2
2
2
2
2
2
2
2
2
2
2
2
2
2
2
2
2
2
2
2
2
2
2
2
2
2
2
2
2
2
2
2
2
2
2
2
2
2
2
2
2
2
2
2
2
2
2
2
2
2
2
2
2
2
2
2
2
2
2
2
2
2
2
SCALARS computation unsigned_long
LOOKUP_TABLE default
1
1
1
1
1
1
1
1
1
1
1
1
1
1
1
1
1
1
1
1
1
1
1
1
1
1
1
1
1
1
1
1
1
1
1
1
1
1
1
1
1
1
1
1
1
1
1
1
1
1
1
1
1
1
1
1
1
1
1
1
1
1
1
1
1
1
1
1
1
1
1
1
1
1
1
1
1
1
1
1
1
1
1
1
1
1
1
1
1
1
1
1
1
1
1
1
1
1
1
1
1
1
1
1
1
1
1
1
1
1
1
1
1
1
1
1
1
1
1
1
1
1
1
1
1
1
1
1
1
1
1
1
1
1
1
1
1
1
1
1
1
1
1
1
1
1
1
1
1
1
1
1
1
1
1
1
1
1
1
1
1
1
1
1
1
1
1
1
1
1
1
1
1
1
1
1
1
1
1
1
1
1
1
1
1
1
1
1
1
1
1
1
1
1
1
1
1
1
1
1
1
1
1
1
1
1
1
1
1
1
1
1
1
1
1
1
1
1
1
1
5
1
1
1
1
1
1
5
5
5
1
1
1
1
1
1
5
1
1
1
1
1
1
1
1
1
1
1
1
1
1
1
1
1
1
1
1
1
1
1
1
1
1
1
1
1
1
1
1
1
1
1
1
1
1
1
1
1
1
1
1
1
1
5
5
5
1
1
1
1
1
5
5
5
1
1
1
1
1
5
5
5
1
1
1
1
1
1
1
1
1
1
1
1
1
1
1
1
1
1
1
1
1
1
1
1
1
1
1
1
1
1
1
1
1
1
1
1
1
1
1
1
1
1
1
1
1
1
5
1
1
1
1
1
1
5
5
5
1
1
1
1
1
1
5
1
1
1
1
1
1
1
1
1
1
1
1
1
1
1
1
1
1
1
1
1
1
1
1
1
1
1
1
1
1
1
1
1
1
1
1
1
1
1
1
1
1
1
1
1
1
1
1
1
1
1
1
1
1
1
1
1
1
1
1
1
1
1
1
1
1
1
1
1
1
1
1
1
1
1
1
1
1
1
1
1
1
1
1
1
1
1
1
1
1
1
1
1
1
1
1
1
1
1
1
1
1
1
1
1
1
1
1
1
1
1
1
1
1
1
1
1
1
1
1
1
1
1
1
1
1
1
1
1
1
1
1
1
1
1
1
1
1
1
1
1
1
1
1
1
1
1
SCALARS global_id unsigned_long
LOOKUP_TABLE default
0
1
2
3
4
5
6
7
8
9
10
11
12
13
14
15
16
17
18
19
20
21
22
23
24
25
26
27
28
29
30
31
32
33
34
35
36
37
38
39
40
41
42
43
44
45
46
47
48
49
50
51
52
53
54
55
56
57
58
59
60
61
62
63
64
65
66
67
68
69
70
71
72
73
74
75
76
77
78
79
80
81
82
83
84
85
86
87
88
89
90
91
92
93
94
95
96
97
98
99
100
101
102
103
104
105
106
107
108
109
110
111
112
113
114
115
116
117
118
119
120
121
122
123
124
125
126
127
128
129
130
131
132
133
134
135
136
137
138
139
140
141
142
143
144
145
146
147
148
149
150
151
152
153
154
155
156
157
158
159
160
161
162
163
164
165
166
167
168
169
170
171
172
173
174
175
176
177
178
179
180
181
182
183
184
185
186
187
188
189
190
191
192
193
194
195
196
197
198
199
200
201
202
203
204
205
206
207
208
209
210
211
212
213
214
215
216
217
218
219
220
221
222
223
224
225
226
227
228
229
230
231
232
233
234
235
236
237
238
239
240
241
242
243
244
245
246
247
248
249
250
251
252
253
254
255
256
257
258
259
260
261
262
263
264
265
266
267
268
269
270
271
272
273
274
275
276
277
278
279
280
281
282
283
284
285
286
287
288
289
290
291
292
293
294
295
296
297
298
299
300
301
302
303
304
305
306
307
308
309
310
311
312
313
314
315
316
317
318
319
320
321
322
323
324
325
326
327
328
329
330
331
332
333
334
335
336
337
338
339
340
341
342
343
344
345
346
347
348
349
350
351
352
353
354
355
356
357
358
359
360
361
362
363
364
365
366
367
368
369
370
371
372
373
374
375
376
377
378
379
380
381
382
383
384
385
386
387
388
389
390
391
392
393
394
395
396
397
398
399
400
401
402
403
404
405
406
407
408
409
410
411
412
413
414
415
416
417
418
419
420
421
422
423
424
425
426
427
428
429
430
431
432
433
434
435
436
437
438
439
440
441
442
443
444
445
446
447
448
449
450
451
452
453
454
455
456
457
458
459
460
461
462
463
464
465
466
467
468
469
470
471
472
473
474
475
476
477
478
479
480
481
482
483
484
485
486
487
488
489
490
491
492
493
494
495
496
497
498
499
500
501
502
503
504
505
506
507
508
509
510
511
SCALARS id unsigned_long
LOOKUP_TABLE default
322
323
324
0
1
2
3
4
325
326
327
5
6
7
8
9
328
329
330
10
11
12
13
14
331
332
333
15
68
69
70
71
382
383
384
167
168
169
170
171
385
386
387
172
173
174
175
176
388
389
390
177
178
179
180
181
391
392
320
182
183
184
185
186
334
335
336
16
17
18
19
20
337
338
339
21
22
23
24
25
340
341
342
26
27
28
29
30
343
344
345
31
72
73
74
75
393
394
395
187
188
189
190
191
396
397
398
192
193
194
195
196
399
400
401
197
198
199
200
201
402
403
321
202
203
204
205
206
346
347
348
32
33
34
35
36
349
350
351
37
38
39
40
41
352
353
354
42
43
44
45
46
355
356
357
47
76
77
78
79
404
405
406
207
208
209
210
211
407
408
409
212
213
214
215
216
410
411
412
217
218
219
220
221
413
414
415
222
223
224
225
226
358
359
360
48
49
50
51
52
361
362
363
53
54
55
56
57
364
365
366
58
59
60
61
62
367
368
369
63
80
81
82
83
416
417
418
227
228
229
230
231
419
420
421
232
233
234
235
236
422
423
424
237
238
239
240
241
425
426
427
242
243
244
245
246
370
371
372
64
84
85
86
87
373
374
375
65
88
89
90
91
376
377
378
66
92
93
94
95
379
380
381
67
96
97
98
99
428
429
430
247
248
249
250
251
431
432
433
252
253
254
255
256
434
435
436
257
258
259
260
261
437
438
439
262
263
264
265
266
446
447
448
100
101
102
103
104
449
450
451
105
106
107
108
109
452
453
454
110
111
112
113
114
455
456
457
115
116
117
118
119
458
459
460
153
277
278
279
280
461
462
463
281
282
283
284
285
440
441
442
267
268
269
270
271
443
444
445
272
273
274
275
276
464
465
466
120
121
122
123
124
467
468
469
125
126
127
128
129
470
471
472
130
131
132
133
134
473
474
475
154
155
135
136
137
476
477
478
156
157
286
287
288
479
480
481
289
290
291
292
293
482
483
484
294
295
296
297
298
485
486
487
299
300
301
302
303
488
489
490
138
139
140
141
142
491
492
493
143
144
145
146
147
494
495
496
148
149
150
151
152
497
498
499
158
159
160
161
162
500
501
502
163
164
165
166
304
503
504
505
305
306
307
308
309
506
507
508
310
311
312
313
314
509
510
511
315
316
317