# vtk DataFile Version 3.0
Graph
ASCII
DATASET UNSTRUCTURED_GRID
POINTS 64 float
1 0 0.0
1 0 0.0
1 0 0.0
1 0 0.0
4 1 0.0
4 0 0.0
4 1 0.0
4 0 0.0
5 1 0.0
5 1 0.0
5 1 0.0
5 1 0.0
3 2 0.0
3 2 0.0
3 2 0.0
3 2 0.0
6 0 0.0
6 0 0.0
6 0 0.0
6 0 0.0
6 2 0.0
6 2 0.0
6 2 0.0
6 2 0.0
0 2 0.0
0 2 0.0
0 2 0.0
0 2 0.0
1 5 0.0
1 4 0.0
1 5 0.0
1 4 0.0
2 5 0.0
2 5 0.0
2 5 0.0
2 5 0.0
0 6 0.0
0 6 0.0
0 6 0.0
0 6 0.0
3 4 0.0
3 4 0.0
3 4 0.0
3 4 0.0
4 6 0.0
4 6 0.0
3 6 0.0
3 6 0.0
3 7 0.0
3 7 0.0
3 7 0.0
3 7 0.0
5 4 0.0
5 4 0.0
5 4 0.0
5 4 0.0
7 4 0.0
7 4 0.0
7 4 0.0
7 4 0.0
6 7 0.0
6 7 0.0
6 7 0.0
6 7 0.0
CELLS 16 80
4  0 1 2 3
4  4 5 6 7
4  8 9 10 11
4  12 13 14 15
4  16 17 18 19
4  20 21 22 23
4  24 25 26 27
4  28 29 30 31
4  32 33 34 35
4  36 37 38 39
4  40 41 42 43
4  44 45 46 47
4  48 49 50 51
4  52 53 54 55
4  56 57 58 59
4  60 61 62 63

CELL_TYPES 16
8
8
8
8
8
8
8
8
8
8
8
8
8
8
8
8
CELL_DATA 16
COLOR_SCALARS data 4
0.595560 0.000000 0.000000 1.0
0.771386 0.000000 0.000000 1.0
0.969554 0.000000 0.000000 1.0
0.869033 0.000000 0.000000 1.0
0.799516 0.000000 0.000000 1.0
0.511738 0.000000 0.000000 1.0
0.697585 0.000000 0.000000 1.0
0.974377 0.000000 0.000000 1.0
0.566741 0.000000 0.000000 1.0
0.926485 0.000000 0.000000 1.0
0.987427 0.000000 0.000000 1.0
0.591356 0.000000 0.000000 1.0
0.676762 0.000000 0.000000 1.0
0.793681 0.000000 0.000000 1.0
0.559423 0.000000 0.000000 1.0
0.642290 0.000000 0.000000 1.0

