# vtk DataFile Version 3.0
Graph
ASCII
DATASET UNSTRUCTURED_GRID
POINTS 44 float
3 0 0.0
3 0 0.0
2 0 0.0
2 0 0.0
2 1 0.0
2 1 0.0
1 1 0.0
1 1 0.0
7 0 0.0
7 0 0.0
7 0 0.0
7 0 0.0
5 3 0.0
5 2 0.0
4 3 0.0
4 2 0.0
6 4 0.0
6 4 0.0
6 4 0.0
6 4 0.0
3 3 0.0
3 3 0.0
1 3 0.0
1 3 0.0
7 3 0.0
7 2 0.0
7 3 0.0
7 2 0.0
5 6 0.0
5 5 0.0
5 6 0.0
5 5 0.0
6 6 0.0
6 6 0.0
6 6 0.0
6 6 0.0
0 7 0.0
0 7 0.0
0 7 0.0
0 7 0.0
2 7 0.0
2 7 0.0
2 7 0.0
2 7 0.0
CELLS 11 55
4  0 1 2 3
4  4 5 6 7
4  8 9 10 11
4  12 13 14 15
4  16 17 18 19
4  20 21 22 23
4  24 25 26 27
4  28 29 30 31
4  32 33 34 35
4  36 37 38 39
4  40 41 42 43

CELL_TYPES 11
8
8
8
8
8
8
8
8
8
8
8
CELL_DATA 11
COLOR_SCALARS data 4
0.500004 0.000000 0.000000 1.0
0.565769 0.000000 0.000000 1.0
0.877803 0.000000 0.000000 1.0
0.729325 0.000000 0.000000 1.0
0.766384 0.000000 0.000000 1.0
0.609480 0.000000 0.000000 1.0
0.523522 0.000000 0.000000 1.0
0.839432 0.000000 0.000000 1.0
0.839648 0.000000 0.000000 1.0
0.967346 0.000000 0.000000 1.0
0.691751 0.000000 0.000000 1.0

